<?xml version="1.0" encoding="UTF-8"?>

<!-- generated on 20 يون, 2019 EET 06:58:09 م by Eclipse SUMO GUI Version 1.2.0
<configuration xmlns:xsi="http://www.w3.org/2001/XMLSchema-instance" xsi:noNamespaceSchemaLocation="http://sumo.dlr.de/xsd/sumoConfiguration.xsd">

    <input>
        <net-file value="../city.net.xml"/>
        <route-files value="../city.rou.xml"/>
        <additional-files value="../city.det.xml"/>
    </input>

    <output>
        <tripinfo-output value="../tripinfo.xml"/>
    </output>

    <time>
        <begin value="0"/>
        <end value="30000"/>
    </time>

    <traci_server>
        <remote-port value="43291"/>
    </traci_server>

    <gui_only>
        <gui-settings-file value="../city.settings.xml"/>
    </gui_only>

</configuration>
-->

<tripinfos xmlns:xsi="http://www.w3.org/2001/XMLSchema-instance" xsi:noNamespaceSchemaLocation="http://sumo.dlr.de/xsd/tripinfo_file.xsd">
    <tripinfo id="14" depart="14.00" departLane="SouthEasttoR_0" departPos="5.10" departSpeed="0.00" departDelay="0.00" arrival="99.00" arrivalLane="RtoEast_0" arrivalPos="474.72" arrivalSpeed="14.91" duration="85.00" routeLength="950.90" waitingTime="8.00" waitingCount="1" stopTime="0.00" timeLoss="21.03" rerouteNo="0" devices="tripinfo_14" vType="DEFAULT_VEHTYPE" speedFactor="1.08" vaporized=""/>
    <tripinfo id="24" depart="24.00" departLane="SouthEasttoR_0" departPos="5.10" departSpeed="0.00" departDelay="0.00" arrival="101.00" arrivalLane="RtoEast_1" arrivalPos="474.72" arrivalSpeed="14.89" duration="77.00" routeLength="950.90" waitingTime="1.00" waitingCount="1" stopTime="0.00" timeLoss="15.38" rerouteNo="0" devices="tripinfo_24" vType="DEFAULT_VEHTYPE" speedFactor="1.12" vaporized=""/>
    <tripinfo id="0" depart="0.00" departLane="NorthWesttoU_0" departPos="5.10" departSpeed="0.00" departDelay="0.00" arrival="129.00" arrivalLane="UtoNorthEast_0" arrivalPos="488.57" arrivalSpeed="13.52" duration="129.00" routeLength="998.33" waitingTime="38.00" waitingCount="1" stopTime="0.00" timeLoss="54.46" rerouteNo="0" devices="tripinfo_0" vType="DEFAULT_VEHTYPE" speedFactor="0.98" vaporized=""/>
    <tripinfo id="59" depart="61.00" departLane="SouthEasttoR_0" departPos="5.10" departSpeed="0.00" departDelay="2.00" arrival="146.00" arrivalLane="RtoEast_0" arrivalPos="474.72" arrivalSpeed="14.88" duration="85.00" routeLength="950.90" waitingTime="5.00" waitingCount="2" stopTime="0.00" timeLoss="20.64" rerouteNo="0" devices="tripinfo_59" vType="DEFAULT_VEHTYPE" speedFactor="1.09" vaporized=""/>
    <tripinfo id="73" depart="74.00" departLane="NorthEasttoU_0" departPos="5.10" departSpeed="0.00" departDelay="1.00" arrival="146.00" arrivalLane="UtoNorthWest_0" arrivalPos="488.57" arrivalSpeed="14.86" duration="72.00" routeLength="977.04" waitingTime="0.00" waitingCount="0" stopTime="0.00" timeLoss="7.73" rerouteNo="0" devices="tripinfo_73" vType="DEFAULT_VEHTYPE" speedFactor="1.10" vaporized=""/>
    <tripinfo id="69" depart="69.00" departLane="SouthEasttoR_0" departPos="5.10" departSpeed="0.00" departDelay="0.00" arrival="148.00" arrivalLane="RtoEast_0" arrivalPos="474.72" arrivalSpeed="14.20" duration="79.00" routeLength="950.90" waitingTime="0.00" waitingCount="0" stopTime="0.00" timeLoss="13.48" rerouteNo="0" devices="tripinfo_69" vType="DEFAULT_VEHTYPE" speedFactor="1.06" vaporized=""/>
    <tripinfo id="2" depart="2.00" departLane="NorthEasttoU_0" departPos="5.10" departSpeed="0.00" departDelay="0.00" arrival="161.00" arrivalLane="RtoEast_0" arrivalPos="474.72" arrivalSpeed="16.22" duration="159.00" routeLength="1706.79" waitingTime="34.00" waitingCount="1" stopTime="0.00" timeLoss="56.30" rerouteNo="0" devices="tripinfo_2" vType="DEFAULT_VEHTYPE" speedFactor="1.20" vaporized=""/>
    <tripinfo id="3" depart="5.00" departLane="NorthEasttoU_0" departPos="5.10" departSpeed="0.00" departDelay="2.00" arrival="166.00" arrivalLane="RtoEast_1" arrivalPos="474.72" arrivalSpeed="13.45" duration="161.00" routeLength="1706.79" waitingTime="27.00" waitingCount="1" stopTime="0.00" timeLoss="43.39" rerouteNo="0" devices="tripinfo_3" vType="DEFAULT_VEHTYPE" speedFactor="1.05" vaporized=""/>
    <tripinfo id="35" depart="37.00" departLane="WesttoL_0" departPos="5.10" departSpeed="0.00" departDelay="2.00" arrival="167.00" arrivalLane="LtoSouthWest_0" arrivalPos="474.64" arrivalSpeed="11.25" duration="130.00" routeLength="950.90" waitingTime="40.00" waitingCount="1" stopTime="0.00" timeLoss="53.43" rerouteNo="0" devices="tripinfo_35" vType="DEFAULT_VEHTYPE" speedFactor="0.90" vaporized=""/>
    <tripinfo id="21" depart="21.00" departLane="NorthWesttoU_0" departPos="5.10" departSpeed="0.00" departDelay="0.00" arrival="168.00" arrivalLane="RtoEast_2" arrivalPos="474.72" arrivalSpeed="15.29" duration="147.00" routeLength="1703.20" waitingTime="23.00" waitingCount="1" stopTime="0.00" timeLoss="38.80" rerouteNo="0" devices="tripinfo_21" vType="DEFAULT_VEHTYPE" speedFactor="1.13" vaporized=""/>
    <tripinfo id="38" depart="38.00" departLane="NorthEasttoU_0" departPos="5.10" departSpeed="0.00" departDelay="0.00" arrival="168.00" arrivalLane="RtoEast_0" arrivalPos="474.72" arrivalSpeed="13.59" duration="130.00" routeLength="1706.79" waitingTime="0.00" waitingCount="0" stopTime="0.00" timeLoss="14.34" rerouteNo="0" devices="tripinfo_38" vType="DEFAULT_VEHTYPE" speedFactor="1.06" vaporized=""/>
    <tripinfo id="9" depart="12.00" departLane="SouthWesttoL_0" departPos="5.10" departSpeed="0.00" departDelay="3.00" arrival="185.00" arrivalLane="RtoSouthEast_0" arrivalPos="474.64" arrivalSpeed="15.27" duration="173.00" routeLength="1976.54" waitingTime="28.00" waitingCount="1" stopTime="0.00" timeLoss="45.58" rerouteNo="0" devices="tripinfo_9" vType="DEFAULT_VEHTYPE" speedFactor="1.12" vaporized=""/>
    <tripinfo id="23" depart="23.00" departLane="NorthEasttoU_0" departPos="5.10" departSpeed="0.00" departDelay="0.00" arrival="185.00" arrivalLane="LtoSouthWest_0" arrivalPos="474.64" arrivalSpeed="15.04" duration="162.00" routeLength="1701.85" waitingTime="38.00" waitingCount="1" stopTime="0.00" timeLoss="55.05" rerouteNo="0" devices="tripinfo_23" vType="DEFAULT_VEHTYPE" speedFactor="1.15" vaporized=""/>
    <tripinfo id="1" depart="1.00" departLane="EasttoR_0" departPos="5.10" departSpeed="0.00" departDelay="0.00" arrival="186.00" arrivalLane="UtoNorthEast_0" arrivalPos="488.57" arrivalSpeed="14.29" duration="185.00" routeLength="1675.13" waitingTime="55.00" waitingCount="2" stopTime="0.00" timeLoss="72.71" rerouteNo="0" devices="tripinfo_1" vType="DEFAULT_VEHTYPE" speedFactor="1.08" vaporized=""/>
    <tripinfo id="7" depart="9.00" departLane="SouthWesttoL_0" departPos="5.10" departSpeed="0.00" departDelay="2.00" arrival="186.00" arrivalLane="RtoEast_0" arrivalPos="474.72" arrivalSpeed="14.59" duration="177.00" routeLength="1985.72" waitingTime="26.00" waitingCount="1" stopTime="0.00" timeLoss="45.53" rerouteNo="0" devices="tripinfo_7" vType="DEFAULT_VEHTYPE" speedFactor="1.09" vaporized=""/>
    <tripinfo id="42" depart="42.00" departLane="NorthEasttoU_0" departPos="5.10" departSpeed="0.00" departDelay="0.00" arrival="186.00" arrivalLane="LtoSouthWest_1" arrivalPos="474.64" arrivalSpeed="14.62" duration="144.00" routeLength="1701.85" waitingTime="14.00" waitingCount="1" stopTime="0.00" timeLoss="31.86" rerouteNo="0" devices="tripinfo_42" vType="DEFAULT_VEHTYPE" speedFactor="1.10" vaporized=""/>
    <tripinfo id="20" depart="20.00" departLane="SouthEasttoR_0" departPos="5.10" departSpeed="0.00" departDelay="0.00" arrival="187.00" arrivalLane="UtoNorthWest_0" arrivalPos="488.57" arrivalSpeed="13.48" duration="167.00" routeLength="1701.85" waitingTime="28.00" waitingCount="2" stopTime="0.00" timeLoss="48.05" rerouteNo="0" devices="tripinfo_20" vType="DEFAULT_VEHTYPE" speedFactor="1.03" vaporized=""/>
    <tripinfo id="31" depart="35.00" departLane="SouthEasttoR_0" departPos="5.10" departSpeed="0.00" departDelay="4.00" arrival="188.00" arrivalLane="UtoNorthEast_0" arrivalPos="488.57" arrivalSpeed="13.54" duration="153.00" routeLength="1684.15" waitingTime="18.00" waitingCount="1" stopTime="0.00" timeLoss="35.14" rerouteNo="0" devices="tripinfo_31" vType="DEFAULT_VEHTYPE" speedFactor="1.03" vaporized=""/>
    <tripinfo id="39" depart="39.00" departLane="SouthWesttoL_0" departPos="5.10" departSpeed="0.00" departDelay="0.00" arrival="188.00" arrivalLane="RtoEast_1" arrivalPos="474.72" arrivalSpeed="15.74" duration="149.00" routeLength="1985.72" waitingTime="7.00" waitingCount="1" stopTime="0.00" timeLoss="25.81" rerouteNo="0" devices="tripinfo_39" vType="DEFAULT_VEHTYPE" speedFactor="1.17" vaporized=""/>
    <tripinfo id="55" depart="55.00" departLane="NorthWesttoU_0" departPos="5.10" departSpeed="0.00" departDelay="0.00" arrival="189.00" arrivalLane="LtoSouthWest_1" arrivalPos="474.64" arrivalSpeed="13.74" duration="134.00" routeLength="1684.15" waitingTime="2.00" waitingCount="1" stopTime="0.00" timeLoss="18.59" rerouteNo="0" devices="tripinfo_55" vType="DEFAULT_VEHTYPE" speedFactor="1.06" vaporized=""/>
    <tripinfo id="6" depart="6.00" departLane="SouthWesttoL_0" departPos="5.10" departSpeed="0.00" departDelay="0.00" arrival="190.00" arrivalLane="RtoSouthEast_0" arrivalPos="474.64" arrivalSpeed="13.68" duration="184.00" routeLength="1976.54" waitingTime="27.00" waitingCount="1" stopTime="0.00" timeLoss="43.43" rerouteNo="0" devices="tripinfo_6" vType="DEFAULT_VEHTYPE" speedFactor="1.02" vaporized=""/>
    <tripinfo id="33" depart="33.00" departLane="NorthEasttoU_0" departPos="5.10" departSpeed="0.00" departDelay="0.00" arrival="190.00" arrivalLane="LtoWest_0" arrivalPos="474.72" arrivalSpeed="13.58" duration="157.00" routeLength="1692.83" waitingTime="23.00" waitingCount="1" stopTime="0.00" timeLoss="38.68" rerouteNo="0" devices="tripinfo_33" vType="DEFAULT_VEHTYPE" speedFactor="1.04" vaporized=""/>
    <tripinfo id="8" depart="10.00" departLane="SouthEasttoR_0" departPos="5.10" departSpeed="0.00" departDelay="2.00" arrival="191.00" arrivalLane="UtoNorthWest_0" arrivalPos="488.57" arrivalSpeed="12.71" duration="181.00" routeLength="1701.85" waitingTime="28.00" waitingCount="2" stopTime="0.00" timeLoss="47.66" rerouteNo="0" devices="tripinfo_8" vType="DEFAULT_VEHTYPE" speedFactor="0.92" vaporized=""/>
    <tripinfo id="11" depart="12.00" departLane="WesttoL_0" departPos="5.10" departSpeed="0.00" departDelay="1.00" arrival="192.00" arrivalLane="RtoEast_0" arrivalPos="474.72" arrivalSpeed="11.64" duration="180.00" routeLength="1994.90" waitingTime="4.00" waitingCount="1" stopTime="0.00" timeLoss="24.19" rerouteNo="0" devices="tripinfo_11" vType="DEFAULT_VEHTYPE" speedFactor="0.93" vaporized=""/>
    <tripinfo id="16" depart="19.00" departLane="EasttoR_0" departPos="5.10" departSpeed="0.00" departDelay="3.00" arrival="192.00" arrivalLane="UtoNorthWest_1" arrivalPos="488.57" arrivalSpeed="13.39" duration="173.00" routeLength="1692.83" waitingTime="32.00" waitingCount="2" stopTime="0.00" timeLoss="54.39" rerouteNo="0" devices="tripinfo_16" vType="DEFAULT_VEHTYPE" speedFactor="1.03" vaporized=""/>
    <tripinfo id="56" depart="57.00" departLane="NorthEasttoU_0" departPos="5.10" departSpeed="0.00" departDelay="1.00" arrival="193.00" arrivalLane="LtoSouthWest_1" arrivalPos="474.64" arrivalSpeed="14.51" duration="136.00" routeLength="1701.85" waitingTime="4.00" waitingCount="1" stopTime="0.00" timeLoss="25.82" rerouteNo="0" devices="tripinfo_56" vType="DEFAULT_VEHTYPE" speedFactor="1.12" vaporized=""/>
    <tripinfo id="17" depart="17.00" departLane="NorthEasttoU_0" departPos="5.10" departSpeed="0.00" departDelay="0.00" arrival="194.00" arrivalLane="LtoSouthWest_0" arrivalPos="474.64" arrivalSpeed="12.28" duration="177.00" routeLength="1701.85" waitingTime="23.00" waitingCount="1" stopTime="0.00" timeLoss="38.43" rerouteNo="0" devices="tripinfo_17" vType="DEFAULT_VEHTYPE" speedFactor="0.89" vaporized=""/>
    <tripinfo id="10" depart="10.00" departLane="WesttoL_0" departPos="5.10" departSpeed="0.00" departDelay="0.00" arrival="195.00" arrivalLane="RtoSouthEast_0" arrivalPos="474.64" arrivalSpeed="11.74" duration="185.00" routeLength="1985.72" waitingTime="4.00" waitingCount="1" stopTime="0.00" timeLoss="25.19" rerouteNo="0" devices="tripinfo_10" vType="DEFAULT_VEHTYPE" speedFactor="0.90" vaporized=""/>
    <tripinfo id="28" depart="28.00" departLane="NorthWesttoU_0" departPos="5.10" departSpeed="0.00" departDelay="0.00" arrival="195.00" arrivalLane="LtoWest_0" arrivalPos="474.72" arrivalSpeed="12.73" duration="167.00" routeLength="1675.13" waitingTime="16.00" waitingCount="2" stopTime="0.00" timeLoss="38.30" rerouteNo="0" devices="tripinfo_28" vType="DEFAULT_VEHTYPE" speedFactor="0.94" vaporized=""/>
    <tripinfo id="13" depart="13.00" departLane="EasttoR_0" departPos="5.10" departSpeed="0.00" departDelay="0.00" arrival="197.00" arrivalLane="UtoNorthEast_0" arrivalPos="488.57" arrivalSpeed="11.92" duration="184.00" routeLength="1675.13" waitingTime="31.00" waitingCount="2" stopTime="0.00" timeLoss="53.92" rerouteNo="0" devices="tripinfo_13" vType="DEFAULT_VEHTYPE" speedFactor="0.94" vaporized=""/>
    <tripinfo id="65" depart="65.00" departLane="NorthEasttoU_0" departPos="5.10" departSpeed="0.00" departDelay="0.00" arrival="200.00" arrivalLane="LtoSouthWest_0" arrivalPos="474.64" arrivalSpeed="13.58" duration="135.00" routeLength="1701.85" waitingTime="0.00" waitingCount="0" stopTime="0.00" timeLoss="12.76" rerouteNo="0" devices="tripinfo_65" vType="DEFAULT_VEHTYPE" speedFactor="1.01" vaporized=""/>
    <tripinfo id="36" depart="36.00" departLane="NorthWesttoU_0" departPos="5.10" departSpeed="0.00" departDelay="0.00" arrival="201.00" arrivalLane="LtoWest_0" arrivalPos="474.72" arrivalSpeed="13.47" duration="165.00" routeLength="1675.13" waitingTime="15.00" waitingCount="3" stopTime="0.00" timeLoss="45.78" rerouteNo="0" devices="tripinfo_36" vType="DEFAULT_VEHTYPE" speedFactor="1.02" vaporized=""/>
    <tripinfo id="57" depart="58.00" departLane="NorthWesttoU_0" departPos="5.10" departSpeed="0.00" departDelay="1.00" arrival="202.00" arrivalLane="LtoWest_1" arrivalPos="474.72" arrivalSpeed="13.38" duration="144.00" routeLength="1675.13" waitingTime="7.00" waitingCount="1" stopTime="0.00" timeLoss="26.85" rerouteNo="0" devices="tripinfo_57" vType="DEFAULT_VEHTYPE" speedFactor="1.03" vaporized=""/>
    <tripinfo id="53" depart="53.00" departLane="SouthWesttoL_0" departPos="5.10" departSpeed="0.00" departDelay="0.00" arrival="208.00" arrivalLane="RtoEast_0" arrivalPos="474.72" arrivalSpeed="13.33" duration="155.00" routeLength="1985.72" waitingTime="0.00" waitingCount="0" stopTime="0.00" timeLoss="14.88" rerouteNo="0" devices="tripinfo_53" vType="DEFAULT_VEHTYPE" speedFactor="1.02" vaporized=""/>
    <tripinfo id="29" depart="29.00" departLane="SouthEasttoR_0" departPos="5.10" departSpeed="0.00" departDelay="0.00" arrival="209.00" arrivalLane="LtoWest_1" arrivalPos="474.72" arrivalSpeed="14.06" duration="180.00" routeLength="1996.09" waitingTime="32.00" waitingCount="1" stopTime="0.00" timeLoss="49.09" rerouteNo="0" devices="tripinfo_29" vType="DEFAULT_VEHTYPE" speedFactor="1.10" vaporized=""/>
    <tripinfo id="58" depart="58.00" departLane="SouthEasttoR_0" departPos="5.10" departSpeed="0.00" departDelay="0.00" arrival="209.00" arrivalLane="UtoNorthWest_0" arrivalPos="488.57" arrivalSpeed="12.72" duration="151.00" routeLength="1701.85" waitingTime="1.00" waitingCount="1" stopTime="0.00" timeLoss="17.02" rerouteNo="0" devices="tripinfo_58" vType="DEFAULT_VEHTYPE" speedFactor="0.92" vaporized=""/>
    <tripinfo id="49" depart="49.00" departLane="SouthWesttoL_0" departPos="5.10" departSpeed="0.00" departDelay="0.00" arrival="212.00" arrivalLane="UtoNorthEast_0" arrivalPos="488.57" arrivalSpeed="12.68" duration="163.00" routeLength="1701.85" waitingTime="20.00" waitingCount="1" stopTime="0.00" timeLoss="37.98" rerouteNo="0" devices="tripinfo_49" vType="DEFAULT_VEHTYPE" speedFactor="0.99" vaporized=""/>
    <tripinfo id="4" depart="4.00" departLane="SouthEasttoR_0" departPos="5.10" departSpeed="0.00" departDelay="0.00" arrival="213.00" arrivalLane="LtoSouthWest_0" arrivalPos="474.64" arrivalSpeed="14.61" duration="209.00" routeLength="1997.28" waitingTime="50.00" waitingCount="2" stopTime="0.00" timeLoss="74.85" rerouteNo="0" devices="tripinfo_4" vType="DEFAULT_VEHTYPE" speedFactor="1.08" vaporized=""/>
    <tripinfo id="47" depart="47.00" departLane="NorthEasttoU_0" departPos="5.10" departSpeed="0.00" departDelay="0.00" arrival="213.00" arrivalLane="RtoEast_1" arrivalPos="474.72" arrivalSpeed="15.31" duration="166.00" routeLength="1706.79" waitingTime="30.00" waitingCount="3" stopTime="0.00" timeLoss="55.59" rerouteNo="0" devices="tripinfo_47" vType="DEFAULT_VEHTYPE" speedFactor="1.12" vaporized=""/>
    <tripinfo id="64" depart="67.00" departLane="SouthWesttoL_0" departPos="5.10" departSpeed="0.00" departDelay="3.00" arrival="214.00" arrivalLane="UtoNorthWest_1" arrivalPos="488.57" arrivalSpeed="13.31" duration="147.00" routeLength="1705.44" waitingTime="3.00" waitingCount="1" stopTime="0.00" timeLoss="21.67" rerouteNo="0" devices="tripinfo_64" vType="DEFAULT_VEHTYPE" speedFactor="0.98" vaporized=""/>
    <tripinfo id="15" depart="16.00" departLane="EasttoR_0" departPos="5.10" departSpeed="0.00" departDelay="1.00" arrival="215.00" arrivalLane="LtoSouthWest_1" arrivalPos="474.64" arrivalSpeed="13.12" duration="199.00" routeLength="1996.09" waitingTime="32.00" waitingCount="2" stopTime="0.00" timeLoss="56.39" rerouteNo="0" devices="tripinfo_15" vType="DEFAULT_VEHTYPE" speedFactor="1.01" vaporized=""/>
    <tripinfo id="25" depart="25.00" departLane="WesttoL_0" departPos="5.10" departSpeed="0.00" departDelay="0.00" arrival="215.00" arrivalLane="UtoNorthWest_0" arrivalPos="488.57" arrivalSpeed="13.75" duration="190.00" routeLength="1706.79" waitingTime="45.00" waitingCount="1" stopTime="0.00" timeLoss="66.00" rerouteNo="0" devices="tripinfo_25" vType="DEFAULT_VEHTYPE" speedFactor="0.99" vaporized=""/>
    <tripinfo id="50" depart="50.00" departLane="NorthWesttoU_0" departPos="5.10" departSpeed="0.00" departDelay="0.00" arrival="215.00" arrivalLane="RtoEast_0" arrivalPos="474.72" arrivalSpeed="12.09" duration="165.00" routeLength="1703.20" waitingTime="23.00" waitingCount="1" stopTime="0.00" timeLoss="36.73" rerouteNo="0" devices="tripinfo_50" vType="DEFAULT_VEHTYPE" speedFactor="0.96" vaporized=""/>
    <tripinfo id="43" depart="43.00" departLane="NorthWesttoU_0" departPos="5.10" departSpeed="0.00" departDelay="0.00" arrival="216.00" arrivalLane="RtoEast_1" arrivalPos="474.72" arrivalSpeed="11.42" duration="173.00" routeLength="1703.20" waitingTime="19.00" waitingCount="1" stopTime="0.00" timeLoss="36.70" rerouteNo="0" devices="tripinfo_43" vType="DEFAULT_VEHTYPE" speedFactor="0.90" vaporized=""/>
    <tripinfo id="51" depart="51.00" departLane="NorthEasttoU_0" departPos="5.10" departSpeed="0.00" departDelay="0.00" arrival="216.00" arrivalLane="RtoSouthEast_0" arrivalPos="474.64" arrivalSpeed="12.54" duration="165.00" routeLength="1705.44" waitingTime="5.00" waitingCount="1" stopTime="0.00" timeLoss="29.03" rerouteNo="0" devices="tripinfo_51" vType="DEFAULT_VEHTYPE" speedFactor="0.91" vaporized=""/>
    <tripinfo id="68" depart="71.00" departLane="NorthEasttoU_0" departPos="5.10" departSpeed="0.00" departDelay="3.00" arrival="216.00" arrivalLane="RtoEast_2" arrivalPos="474.72" arrivalSpeed="13.80" duration="145.00" routeLength="1706.79" waitingTime="7.00" waitingCount="1" stopTime="0.00" timeLoss="28.38" rerouteNo="0" devices="tripinfo_68" vType="DEFAULT_VEHTYPE" speedFactor="1.05" vaporized=""/>
    <tripinfo id="22" depart="25.00" departLane="EasttoR_0" departPos="5.10" departSpeed="0.00" departDelay="3.00" arrival="217.00" arrivalLane="LtoWest_0" arrivalPos="474.72" arrivalSpeed="11.57" duration="192.00" routeLength="1994.90" waitingTime="13.00" waitingCount="1" stopTime="0.00" timeLoss="30.69" rerouteNo="0" devices="tripinfo_22" vType="DEFAULT_VEHTYPE" speedFactor="0.89" vaporized=""/>
    <tripinfo id="48" depart="49.00" departLane="EasttoR_0" departPos="5.10" departSpeed="0.00" departDelay="1.00" arrival="217.00" arrivalLane="LtoWest_1" arrivalPos="474.72" arrivalSpeed="13.33" duration="168.00" routeLength="1994.90" waitingTime="1.00" waitingCount="1" stopTime="0.00" timeLoss="23.42" rerouteNo="0" devices="tripinfo_48" vType="DEFAULT_VEHTYPE" speedFactor="1.00" vaporized=""/>
    <tripinfo id="18" depart="22.00" departLane="EasttoR_0" departPos="5.10" departSpeed="0.00" departDelay="4.00" arrival="219.00" arrivalLane="LtoSouthWest_1" arrivalPos="474.64" arrivalSpeed="13.82" duration="197.00" routeLength="1996.09" waitingTime="31.00" waitingCount="2" stopTime="0.00" timeLoss="54.25" rerouteNo="0" devices="tripinfo_18" vType="DEFAULT_VEHTYPE" speedFactor="1.01" vaporized=""/>
    <tripinfo id="5" depart="7.00" departLane="SouthEasttoR_0" departPos="5.10" departSpeed="0.00" departDelay="2.00" arrival="220.00" arrivalLane="LtoSouthWest_0" arrivalPos="474.64" arrivalSpeed="11.98" duration="213.00" routeLength="1997.28" waitingTime="35.00" waitingCount="2" stopTime="0.00" timeLoss="59.18" rerouteNo="0" devices="tripinfo_5" vType="DEFAULT_VEHTYPE" speedFactor="0.94" vaporized=""/>
    <tripinfo id="88" depart="88.00" departLane="WesttoL_0" departPos="5.10" departSpeed="0.00" departDelay="0.00" arrival="221.00" arrivalLane="UtoNorthWest_1" arrivalPos="488.57" arrivalSpeed="15.47" duration="133.00" routeLength="1706.79" waitingTime="1.00" waitingCount="1" stopTime="0.00" timeLoss="23.89" rerouteNo="0" devices="tripinfo_88" vType="DEFAULT_VEHTYPE" speedFactor="1.13" vaporized=""/>
    <tripinfo id="46" depart="46.00" departLane="EasttoR_0" departPos="5.10" departSpeed="0.00" departDelay="0.00" arrival="222.00" arrivalLane="LtoSouthWest_0" arrivalPos="474.64" arrivalSpeed="13.62" duration="176.00" routeLength="1996.09" waitingTime="7.00" waitingCount="1" stopTime="0.00" timeLoss="31.87" rerouteNo="0" devices="tripinfo_46" vType="DEFAULT_VEHTYPE" speedFactor="1.00" vaporized=""/>
    <tripinfo id="54" depart="54.00" departLane="NorthEasttoU_0" departPos="5.10" departSpeed="0.00" departDelay="0.00" arrival="222.00" arrivalLane="RtoEast_0" arrivalPos="474.72" arrivalSpeed="12.73" duration="168.00" routeLength="1706.79" waitingTime="9.00" waitingCount="2" stopTime="0.00" timeLoss="35.85" rerouteNo="0" devices="tripinfo_54" vType="DEFAULT_VEHTYPE" speedFactor="0.93" vaporized=""/>
    <tripinfo id="78" depart="79.00" departLane="SouthEasttoR_0" departPos="5.10" departSpeed="0.00" departDelay="1.00" arrival="225.00" arrivalLane="LtoWest_0" arrivalPos="474.72" arrivalSpeed="13.78" duration="146.00" routeLength="1996.09" waitingTime="0.00" waitingCount="0" stopTime="0.00" timeLoss="12.46" rerouteNo="0" devices="tripinfo_78" vType="DEFAULT_VEHTYPE" speedFactor="1.08" vaporized=""/>
    <tripinfo id="80" depart="80.00" departLane="WesttoL_0" departPos="5.10" departSpeed="0.00" departDelay="0.00" arrival="226.00" arrivalLane="UtoNorthEast_0" arrivalPos="488.57" arrivalSpeed="13.54" duration="146.00" routeLength="1703.20" waitingTime="3.00" waitingCount="1" stopTime="0.00" timeLoss="20.25" rerouteNo="0" devices="tripinfo_80" vType="DEFAULT_VEHTYPE" speedFactor="0.98" vaporized=""/>
    <tripinfo id="93" depart="94.00" departLane="WesttoL_0" departPos="5.10" departSpeed="0.00" departDelay="1.00" arrival="227.00" arrivalLane="UtoNorthWest_0" arrivalPos="488.57" arrivalSpeed="13.30" duration="133.00" routeLength="1706.79" waitingTime="0.00" waitingCount="0" stopTime="0.00" timeLoss="12.80" rerouteNo="0" devices="tripinfo_93" vType="DEFAULT_VEHTYPE" speedFactor="1.02" vaporized=""/>
    <tripinfo id="30" depart="32.00" departLane="SouthEasttoR_0" departPos="5.10" departSpeed="0.00" departDelay="2.00" arrival="228.00" arrivalLane="LtoSouthWest_0" arrivalPos="474.64" arrivalSpeed="11.52" duration="196.00" routeLength="1997.28" waitingTime="0.00" waitingCount="0" stopTime="0.00" timeLoss="23.50" rerouteNo="0" devices="tripinfo_30" vType="DEFAULT_VEHTYPE" speedFactor="0.83" vaporized=""/>
    <tripinfo id="72" depart="73.00" departLane="NorthWesttoU_0" departPos="5.10" departSpeed="0.00" departDelay="1.00" arrival="228.00" arrivalLane="LtoWest_1" arrivalPos="474.72" arrivalSpeed="14.63" duration="155.00" routeLength="1675.13" waitingTime="26.00" waitingCount="3" stopTime="0.00" timeLoss="49.19" rerouteNo="0" devices="tripinfo_72" vType="DEFAULT_VEHTYPE" speedFactor="1.14" vaporized=""/>
    <tripinfo id="74" depart="74.00" departLane="EasttoR_0" departPos="5.10" departSpeed="0.00" departDelay="0.00" arrival="228.00" arrivalLane="RtoSouthEast_1" arrivalPos="474.64" arrivalSpeed="14.67" duration="154.00" routeLength="990.37" waitingTime="78.00" waitingCount="1" stopTime="0.00" timeLoss="91.91" rerouteNo="0" devices="tripinfo_74" vType="DEFAULT_VEHTYPE" speedFactor="1.14" vaporized=""/>
    <tripinfo id="85" depart="85.00" departLane="NorthEasttoU_0" departPos="5.10" departSpeed="0.00" departDelay="0.00" arrival="229.00" arrivalLane="LtoWest_0" arrivalPos="474.72" arrivalSpeed="14.82" duration="144.00" routeLength="1692.83" waitingTime="16.00" waitingCount="1" stopTime="0.00" timeLoss="32.10" rerouteNo="0" devices="tripinfo_85" vType="DEFAULT_VEHTYPE" speedFactor="1.10" vaporized=""/>
    <tripinfo id="81" depart="82.00" departLane="NorthWesttoU_0" departPos="5.10" departSpeed="0.00" departDelay="1.00" arrival="232.00" arrivalLane="LtoWest_0" arrivalPos="474.72" arrivalSpeed="14.21" duration="150.00" routeLength="1675.13" waitingTime="13.00" waitingCount="2" stopTime="0.00" timeLoss="35.63" rerouteNo="0" devices="tripinfo_81" vType="DEFAULT_VEHTYPE" speedFactor="1.06" vaporized=""/>
    <tripinfo id="71" depart="71.00" departLane="WesttoL_0" departPos="5.10" departSpeed="0.00" departDelay="0.00" arrival="235.00" arrivalLane="UtoNorthEast_0" arrivalPos="488.57" arrivalSpeed="12.45" duration="164.00" routeLength="1703.20" waitingTime="8.00" waitingCount="1" stopTime="0.00" timeLoss="28.38" rerouteNo="0" devices="tripinfo_71" vType="DEFAULT_VEHTYPE" speedFactor="0.91" vaporized=""/>
    <tripinfo id="70" depart="70.00" departLane="NorthWesttoU_0" departPos="5.10" departSpeed="0.00" departDelay="0.00" arrival="237.00" arrivalLane="RtoEast_0" arrivalPos="474.72" arrivalSpeed="11.87" duration="167.00" routeLength="1703.20" waitingTime="6.00" waitingCount="2" stopTime="0.00" timeLoss="24.12" rerouteNo="0" devices="tripinfo_70" vType="DEFAULT_VEHTYPE" speedFactor="0.86" vaporized=""/>
    <tripinfo id="34" depart="34.00" departLane="WesttoL_0" departPos="5.10" departSpeed="0.00" departDelay="0.00" arrival="249.00" arrivalLane="UtoNorthEast_0" arrivalPos="488.57" arrivalSpeed="10.62" duration="215.00" routeLength="1703.20" waitingTime="38.00" waitingCount="1" stopTime="0.00" timeLoss="55.87" rerouteNo="0" devices="tripinfo_34" vType="DEFAULT_VEHTYPE" speedFactor="0.77" vaporized=""/>
    <tripinfo id="84" depart="84.00" departLane="WesttoL_0" departPos="5.10" departSpeed="0.00" departDelay="0.00" arrival="256.00" arrivalLane="RtoEast_0" arrivalPos="474.72" arrivalSpeed="13.78" duration="172.00" routeLength="1994.90" waitingTime="8.00" waitingCount="1" stopTime="0.00" timeLoss="30.52" rerouteNo="0" devices="tripinfo_84" vType="DEFAULT_VEHTYPE" speedFactor="1.02" vaporized=""/>
    <tripinfo id="61" depart="61.00" departLane="SouthWesttoL_0" departPos="5.10" departSpeed="0.00" departDelay="0.00" arrival="257.00" arrivalLane="RtoEast_0" arrivalPos="474.72" arrivalSpeed="13.87" duration="196.00" routeLength="1985.72" waitingTime="36.00" waitingCount="1" stopTime="0.00" timeLoss="55.29" rerouteNo="0" devices="tripinfo_61" vType="DEFAULT_VEHTYPE" speedFactor="1.02" vaporized=""/>
    <tripinfo id="26" depart="26.00" departLane="SouthWesttoL_0" departPos="5.10" departSpeed="0.00" departDelay="0.00" arrival="259.00" arrivalLane="RtoSouthEast_0" arrivalPos="474.64" arrivalSpeed="13.02" duration="233.00" routeLength="1976.54" waitingTime="56.00" waitingCount="3" stopTime="0.00" timeLoss="84.95" rerouteNo="0" devices="tripinfo_26" vType="DEFAULT_VEHTYPE" speedFactor="0.97" vaporized=""/>
    <tripinfo id="76" depart="76.00" departLane="SouthEasttoR_0" departPos="5.10" departSpeed="0.00" departDelay="0.00" arrival="260.00" arrivalLane="LtoWest_1" arrivalPos="474.72" arrivalSpeed="13.16" duration="184.00" routeLength="1996.09" waitingTime="13.00" waitingCount="1" stopTime="0.00" timeLoss="32.45" rerouteNo="0" devices="tripinfo_76" vType="DEFAULT_VEHTYPE" speedFactor="0.95" vaporized=""/>
    <tripinfo id="89" depart="91.00" departLane="WesttoL_0" departPos="5.10" departSpeed="0.00" departDelay="2.00" arrival="260.00" arrivalLane="RtoEast_0" arrivalPos="474.72" arrivalSpeed="13.53" duration="169.00" routeLength="1994.90" waitingTime="2.00" waitingCount="1" stopTime="0.00" timeLoss="23.67" rerouteNo="0" devices="tripinfo_89" vType="DEFAULT_VEHTYPE" speedFactor="0.99" vaporized=""/>
    <tripinfo id="19" depart="19.00" departLane="SouthWesttoL_0" departPos="5.10" departSpeed="0.00" departDelay="0.00" arrival="261.00" arrivalLane="RtoSouthEast_0" arrivalPos="474.64" arrivalSpeed="11.15" duration="242.00" routeLength="1976.54" waitingTime="58.00" waitingCount="2" stopTime="0.00" timeLoss="78.33" rerouteNo="0" devices="tripinfo_19" vType="DEFAULT_VEHTYPE" speedFactor="0.87" vaporized=""/>
    <tripinfo id="37" depart="38.00" departLane="SouthEasttoR_0" departPos="5.10" departSpeed="0.00" departDelay="1.00" arrival="262.00" arrivalLane="LtoWest_0" arrivalPos="474.72" arrivalSpeed="11.86" duration="224.00" routeLength="1996.09" waitingTime="37.00" waitingCount="2" stopTime="0.00" timeLoss="59.20" rerouteNo="0" devices="tripinfo_37" vType="DEFAULT_VEHTYPE" speedFactor="0.88" vaporized=""/>